<?xml version="1.0"?>
<VTKFile type="UnstructuredGrid" version="0.1" byte_order="LittleEndian">
  <UnstructuredGrid>
    <Piece NumberOfCells="400" NumberOfPoints="451">
      <PointData Scalars="T">
        <DataArray type="Float32" Name="T" NumberOfComponents="1" format="ascii">
          -0.00280438 0.000506065 0.0157567 -0.00224573 -0.000141618 0.000240766 3.35323e-05 -1.53954e-05 -5.34874e-06 -8.55573e-07 6.23137e-07 8.41195e-07
          -3.5956e-08 -2.89433e-07 -1.76583e-08 7.10077e-08 6.66226e-09 -1.9103e-08 -2.15241e-09 5.17071e-09 1.07285e-09 -2.49274e-09 0.023375 -0.00157717
          2.78587e-05 8.40167e-06 -2.13313e-06 9.81108e-07 -3.2948e-07 8.11524e-08 -2.36412e-08 6.98416e-09 -3.55517e-09 0.0279273 0.00230024 -0.00077226
          0.000111642 -1.41435e-05 2.67438e-06 -5.30796e-07 8.45696e-08 -1.93751e-08 5.4308e-09 -2.8484e-09 0.0338751 0.0043811 -0.000702945 1.35576e-05
          6.05924e-06 1.79418e-07 -1.91744e-07 5.44545e-09 9.02665e-10 -3.17455e-10 -6.90156e-11 0.0392163 0.00638767 -0.000225534 -0.000130089 1.79921e-05
          1.74156e-06 -8.65325e-07 1.62639e-07 -3.53567e-08 7.51069e-09 -3.01371e-09 0.0264211 0.0113798 5.10906e-05 -0.000171116 2.87943e-06 5.54239e-06
          -9.44756e-07 4.37941e-08 1.58188e-10 -1.54746e-09 9.7226e-10 0.0222846 0.0133542 0.000968706 -0.000177972 -3.18482e-05 1.06036e-05 -6.98301e-07
          -1.46222e-07 4.01855e-08 -1.04266e-08 4.83244e-09 0.021091 0.0118603 0.00264081 -0.000219886 -4.89883e-05 8.12269e-06 8.03886e-07 -3.42933e-07
          3.4903e-08 -4.92949e-09 2.50907e-09 0.0180101 0.0121742 0.00347679 2.32382e-05 -9.07289e-05 5.07572e-06 1.87551e-06 -2.362e-07 -4.10032e-08
          1.08178e-08 -2.35239e-09 0.0171164 0.012117 0.00411129 0.000362665 -0.000106412 -5.87386e-06 3.34766e-06 -9.82949e-08 -7.7292e-08 5.18332e-09
          2.97917e-09 0.0158222 0.0117855 0.00463939 0.000713784 -8.10513e-05 -2.03907e-05 3.30489e-06 4.14508e-07 -1.31018e-07 -4.23658e-09 8.42689e-09
          0.0148364 0.0113897 0.00504032 0.00103899 -1.21735e-05 -3.43943e-05 1.47826e-06 1.04541e-06 -1.38787e-07 -1.78773e-08 9.33765e-09 0.0140143
          0.0110814 0.00531968 0.00136458 7.69481e-05 -3.93361e-05 -2.44856e-06 1.47136e-06 -3.35182e-08 -4.07319e-08 7.29918e-09 0.0133985 0.0108081
          0.00556862 0.00166293 0.000184332 -3.38583e-05 -7.30704e-06 1.37612e-06 1.71882e-07 -5.69387e-08 -1.8093e-09 0.0128394 0.0105465 0.0057452
          0.00193028 0.000305611 -1.84671e-05 -1.16266e-05 6.39104e-07 3.94918e-07 -4.47463e-08 -2.03348e-08 0.0122819 0.0102437 0.00585022 0.00216418
          0.000432428 5.94843e-06 -1.42675e-05 -6.54581e-07 5.47928e-07 1.39108e-10 -4.06075e-08 0.0117556 0.00990467 0.00589203 0.00235542 0.000554484
          3.71817e-05 -1.47208e-05 -2.2029e-06 5.57561e-07 6.7458e-08 -5.09604e-08 0.0111108 0.00951158 0.00582092 0.0024806 0.000657433 7.05613e-05
          -1.28966e-05 -3.67066e-06 4.08302e-07 1.39774e-07 -4.58259e-08 0.0103323 0.00885082 0.00559969 0.00248536 0.000725723 9.88693e-05 -9.08886e-06
          -4.80746e-06 1.62889e-07 1.9428e-07 -2.58544e-08 0.00923461 0.00788058 0.00513518 0.00234609 0.000737846 0.000116657 -4.58075e-06 -5.33519e-06
          -1.02708e-07 2.17954e-07 1.29875e-09 0.00772662 0.0066562 0.00439418 0.00206829 0.000683093 0.000120448 -7.35611e-07 -5.12761e-06 -3.19081e-07
          2.10928e-07 2.44445e-08 0.00602387 0.00519458 0.00348245 0.00166932 0.000574087 0.000108756 1.93725e-06 -4.36871e-06 -4.19648e-07 1.76278e-07
          3.81061e-08 0.0043131 0.00366567 0.00251714 0.00121308 0.000432724 8.58675e-05 3.12307e-06 -3.28802e-06 -4.05565e-07 1.27837e-07 4.0101e-08
          0.00271649 0.00233968 0.00160018 0.000788859 0.000284841 5.95883e-05 2.87065e-06 -2.12632e-06 -3.22664e-07 8.10639e-08 3.28179e-08 0.00145818
          0.00131999 0.000874103 0.000448942 0.000160645 3.57352e-05 1.96796e-06 -1.16179e-06 -2.14533e-07 4.46915e-08 2.15486e-08 0.000706388 0.000602944
          0.000416271 0.000211579 7.76836e-05 1.76045e-05 1.18645e-06 -5.53693e-07 -1.11166e-07 1.93111e-08 1.22461e-08 0.000258584 0.000235816 0.000158956
          8.23678e-05 3.04701e-05 7.13814e-06 5.4268e-07 -2.08877e-07 -4.81376e-08 7.18123e-09 5.39743e-09 8.12291e-05 6.91539e-05 4.78598e-05 2.48116e-05
          9.35566e-06 2.24607e-06 1.94524e-07 -6.15683e-08 -1.58378e-08 2.05602e-09 1.94131e-09 1.58332e-05 1.48018e-05 1.00857e-05 5.32813e-06 2.03631e-06
          5.06946e-07 4.92208e-08 -1.25032e-08 -3.66598e-09 4.88179e-10 5.28699e-10 2.03176e-06 1.58464e-06 1.13536e-06 6.02544e-07 2.3921e-07 6.22555e-08
          7.2407e-09 -1.20308e-09 -3.67817e-10 1.08341e-10 1.08307e-10 -1.84554e-07 -1.04868e-07 -7.93422e-08 -3.86821e-08 -1.43126e-08 -3.03564e-09 -6.76379e-11
          2.33999e-10 1.00373e-10 3.37265e-11 1.82381e-11 -5.85637e-08 -6.66757e-08 -4.39577e-08 -2.39783e-08 -9.27288e-09 -2.34262e-09 -1.64294e-10 1.25492e-10
          5.63626e-11 1.2935e-11 5.1925e-12 -5.73689e-09 -1.48649e-09 -1.76131e-09 -8.01502e-10 -3.10629e-10 -2.83156e-11 3.89134e-11 3.17201e-11 1.35163e-11
          4.59771e-12 2.42883e-12 3.38442e-09 2.13619e-09 1.72009e-09 9.19776e-10 4.02919e-10 1.27051e-10 3.06497e-11 6.78216e-12 2.60669e-12 1.3694e-12
          9.56957e-13 7.86432e-11 2.88233e-10 1.52686e-10 1.00353e-10 4.37196e-11 1.65327e-11 4.93289e-12 1.58076e-12 6.77415e-13 3.74963e-13 2.72663e-13
          -6.33524e-11 -1.096e-10 -6.22559e-11 -3.67888e-11 -1.39266e-11 -3.62915e-12 -1.76632e-13 3.12052e-13 1.99038e-13 9.10186e-14 6.01962e-14 -2.02125e-11
          -4.66807e-12 -7.071e-12 -2.99096e-12 -1.42128e-12 -3.60621e-13 -1.81745e-14 5.59335e-14 3.66113e-14 1.68991e-14 1.03704e-14 8.73292e-12 4.35513e-12
          4.01894e-12 1.94165e-12 8.49655e-13 2.51829e-13 5.84089e-14 9.73874e-15 2.81615e-15 1.54297e-15 1.22756e-15 -7.01453e-13 3.21604e-13 -2.88015e-14
          6.68183e-14 2.85527e-14 1.86374e-14 4.96476e-15 6.24758e-16 -2.80699e-16 -7.92036e-17 9.80694e-18 -2.34326e-13 -6.68316e-13 -3.34114e-13 -2.10676e-13
          -8.17523e-14 -2.79705e-14 -6.2133e-15 -1.07999e-15 -1.47548e-16 -6.26789e-17 -3.85285e-17
        </DataArray>
      </PointData>
      <Points>
        <DataArray type="Float32" Name="Coordinates" NumberOfComponents="3" format="ascii">
          0 0 0 0.1 0 0 0 0.1 0 0.1 0.1 0
          0.2 0 0 0.2 0.1 0 0.3 0 0 0.3 0.1 0
          0.4 0 0 0.4 0.1 0 0.5 0 0 0.5 0.1 0
          0.6 0 0 0.6 0.1 0 0.7 0 0 0.7 0.1 0
          0.8 0 0 0.8 0.1 0 0.9 0 0 0.9 0.1 0
          1 0 0 1 0.1 0 0 0.2 0 0.1 0.2 0
          0.2 0.2 0 0.3 0.2 0 0.4 0.2 0 0.5 0.2 0
          0.6 0.2 0 0.7 0.2 0 0.8 0.2 0 0.9 0.2 0
          1 0.2 0 0 0.3 0 0.1 0.3 0 0.2 0.3 0
          0.3 0.3 0 0.4 0.3 0 0.5 0.3 0 0.6 0.3 0
          0.7 0.3 0 0.8 0.3 0 0.9 0.3 0 1 0.3 0
          0 0.4 0 0.1 0.4 0 0.2 0.4 0 0.3 0.4 0
          0.4 0.4 0 0.5 0.4 0 0.6 0.4 0 0.7 0.4 0
          0.8 0.4 0 0.9 0.4 0 1 0.4 0 0 0.5 0
          0.1 0.5 0 0.2 0.5 0 0.3 0.5 0 0.4 0.5 0
          0.5 0.5 0 0.6 0.5 0 0.7 0.5 0 0.8 0.5 0
          0.9 0.5 0 1 0.5 0 0 0.6 0 0.1 0.6 0
          0.2 0.6 0 0.3 0.6 0 0.4 0.6 0 0.5 0.6 0
          0.6 0.6 0 0.7 0.6 0 0.8 0.6 0 0.9 0.6 0
          1 0.6 0 0 0.7 0 0.1 0.7 0 0.2 0.7 0
          0.3 0.7 0 0.4 0.7 0 0.5 0.7 0 0.6 0.7 0
          0.7 0.7 0 0.8 0.7 0 0.9 0.7 0 1 0.7 0
          0 0.8 0 0.1 0.8 0 0.2 0.8 0 0.3 0.8 0
          0.4 0.8 0 0.5 0.8 0 0.6 0.8 0 0.7 0.8 0
          0.8 0.8 0 0.9 0.8 0 1 0.8 0 0 0.9 0
          0.1 0.9 0 0.2 0.9 0 0.3 0.9 0 0.4 0.9 0
          0.5 0.9 0 0.6 0.9 0 0.7 0.9 0 0.8 0.9 0
          0.9 0.9 0 1 0.9 0 0 1 0 0.1 1 0
          0.2 1 0 0.3 1 0 0.4 1 0 0.5 1 0
          0.6 1 0 0.7 1 0 0.8 1 0 0.9 1 0
          1 1 0 0 1.1 0 0.1 1.1 0 0.2 1.1 0
          0.3 1.1 0 0.4 1.1 0 0.5 1.1 0 0.6 1.1 0
          0.7 1.1 0 0.8 1.1 0 0.9 1.1 0 1 1.1 0
          0 1.2 0 0.1 1.2 0 0.2 1.2 0 0.3 1.2 0
          0.4 1.2 0 0.5 1.2 0 0.6 1.2 0 0.7 1.2 0
          0.8 1.2 0 0.9 1.2 0 1 1.2 0 0 1.3 0
          0.1 1.3 0 0.2 1.3 0 0.3 1.3 0 0.4 1.3 0
          0.5 1.3 0 0.6 1.3 0 0.7 1.3 0 0.8 1.3 0
          0.9 1.3 0 1 1.3 0 0 1.4 0 0.1 1.4 0
          0.2 1.4 0 0.3 1.4 0 0.4 1.4 0 0.5 1.4 0
          0.6 1.4 0 0.7 1.4 0 0.8 1.4 0 0.9 1.4 0
          1 1.4 0 0 1.5 0 0.1 1.5 0 0.2 1.5 0
          0.3 1.5 0 0.4 1.5 0 0.5 1.5 0 0.6 1.5 0
          0.7 1.5 0 0.8 1.5 0 0.9 1.5 0 1 1.5 0
          0 1.6 0 0.1 1.6 0 0.2 1.6 0 0.3 1.6 0
          0.4 1.6 0 0.5 1.6 0 0.6 1.6 0 0.7 1.6 0
          0.8 1.6 0 0.9 1.6 0 1 1.6 0 0 1.7 0
          0.1 1.7 0 0.2 1.7 0 0.3 1.7 0 0.4 1.7 0
          0.5 1.7 0 0.6 1.7 0 0.7 1.7 0 0.8 1.7 0
          0.9 1.7 0 1 1.7 0 0 1.8 0 0.1 1.8 0
          0.2 1.8 0 0.3 1.8 0 0.4 1.8 0 0.5 1.8 0
          0.6 1.8 0 0.7 1.8 0 0.8 1.8 0 0.9 1.8 0
          1 1.8 0 0 1.9 0 0.1 1.9 0 0.2 1.9 0
          0.3 1.9 0 0.4 1.9 0 0.5 1.9 0 0.6 1.9 0
          0.7 1.9 0 0.8 1.9 0 0.9 1.9 0 1 1.9 0
          0 2 0 0.1 2 0 0.2 2 0 0.3 2 0
          0.4 2 0 0.5 2 0 0.6 2 0 0.7 2 0
          0.8 2 0 0.9 2 0 1 2 0 0 2.1 0
          0.1 2.1 0 0.2 2.1 0 0.3 2.1 0 0.4 2.1 0
          0.5 2.1 0 0.6 2.1 0 0.7 2.1 0 0.8 2.1 0
          0.9 2.1 0 1 2.1 0 0 2.2 0 0.1 2.2 0
          0.2 2.2 0 0.3 2.2 0 0.4 2.2 0 0.5 2.2 0
          0.6 2.2 0 0.7 2.2 0 0.8 2.2 0 0.9 2.2 0
          1 2.2 0 0 2.3 0 0.1 2.3 0 0.2 2.3 0
          0.3 2.3 0 0.4 2.3 0 0.5 2.3 0 0.6 2.3 0
          0.7 2.3 0 0.8 2.3 0 0.9 2.3 0 1 2.3 0
          0 2.4 0 0.1 2.4 0 0.2 2.4 0 0.3 2.4 0
          0.4 2.4 0 0.5 2.4 0 0.6 2.4 0 0.7 2.4 0
          0.8 2.4 0 0.9 2.4 0 1 2.4 0 0 2.5 0
          0.1 2.5 0 0.2 2.5 0 0.3 2.5 0 0.4 2.5 0
          0.5 2.5 0 0.6 2.5 0 0.7 2.5 0 0.8 2.5 0
          0.9 2.5 0 1 2.5 0 0 2.6 0 0.1 2.6 0
          0.2 2.6 0 0.3 2.6 0 0.4 2.6 0 0.5 2.6 0
          0.6 2.6 0 0.7 2.6 0 0.8 2.6 0 0.9 2.6 0
          1 2.6 0 0 2.7 0 0.1 2.7 0 0.2 2.7 0
          0.3 2.7 0 0.4 2.7 0 0.5 2.7 0 0.6 2.7 0
          0.7 2.7 0 0.8 2.7 0 0.9 2.7 0 1 2.7 0
          0 2.8 0 0.1 2.8 0 0.2 2.8 0 0.3 2.8 0
          0.4 2.8 0 0.5 2.8 0 0.6 2.8 0 0.7 2.8 0
          0.8 2.8 0 0.9 2.8 0 1 2.8 0 0 2.9 0
          0.1 2.9 0 0.2 2.9 0 0.3 2.9 0 0.4 2.9 0
          0.5 2.9 0 0.6 2.9 0 0.7 2.9 0 0.8 2.9 0
          0.9 2.9 0 1 2.9 0 0 3 0 0.1 3 0
          0.2 3 0 0.3 3 0 0.4 3 0 0.5 3 0
          0.6 3 0 0.7 3 0 0.8 3 0 0.9 3 0
          1 3 0 0 3.1 0 0.1 3.1 0 0.2 3.1 0
          0.3 3.1 0 0.4 3.1 0 0.5 3.1 0 0.6 3.1 0
          0.7 3.1 0 0.8 3.1 0 0.9 3.1 0 1 3.1 0
          0 3.2 0 0.1 3.2 0 0.2 3.2 0 0.3 3.2 0
          0.4 3.2 0 0.5 3.2 0 0.6 3.2 0 0.7 3.2 0
          0.8 3.2 0 0.9 3.2 0 1 3.2 0 0 3.3 0
          0.1 3.3 0 0.2 3.3 0 0.3 3.3 0 0.4 3.3 0
          0.5 3.3 0 0.6 3.3 0 0.7 3.3 0 0.8 3.3 0
          0.9 3.3 0 1 3.3 0 0 3.4 0 0.1 3.4 0
          0.2 3.4 0 0.3 3.4 0 0.4 3.4 0 0.5 3.4 0
          0.6 3.4 0 0.7 3.4 0 0.8 3.4 0 0.9 3.4 0
          1 3.4 0 0 3.5 0 0.1 3.5 0 0.2 3.5 0
          0.3 3.5 0 0.4 3.5 0 0.5 3.5 0 0.6 3.5 0
          0.7 3.5 0 0.8 3.5 0 0.9 3.5 0 1 3.5 0
          0 3.6 0 0.1 3.6 0 0.2 3.6 0 0.3 3.6 0
          0.4 3.6 0 0.5 3.6 0 0.6 3.6 0 0.7 3.6 0
          0.8 3.6 0 0.9 3.6 0 1 3.6 0 0 3.7 0
          0.1 3.7 0 0.2 3.7 0 0.3 3.7 0 0.4 3.7 0
          0.5 3.7 0 0.6 3.7 0 0.7 3.7 0 0.8 3.7 0
          0.9 3.7 0 1 3.7 0 0 3.8 0 0.1 3.8 0
          0.2 3.8 0 0.3 3.8 0 0.4 3.8 0 0.5 3.8 0
          0.6 3.8 0 0.7 3.8 0 0.8 3.8 0 0.9 3.8 0
          1 3.8 0 0 3.9 0 0.1 3.9 0 0.2 3.9 0
          0.3 3.9 0 0.4 3.9 0 0.5 3.9 0 0.6 3.9 0
          0.7 3.9 0 0.8 3.9 0 0.9 3.9 0 1 3.9 0
          0 4 0 0.1 4 0 0.2 4 0 0.3 4 0
          0.4 4 0 0.5 4 0 0.6 4 0 0.7 4 0
          0.8 4 0 0.9 4 0 1 4 0
        </DataArray>
      </Points>
      <Cells>
        <DataArray type="Int32" Name="connectivity" NumberOfComponents="1" format="ascii">
          0 1 3 2 1 4 5 3 4 6 7 5
          6 8 9 7 8 10 11 9 10 12 13 11
          12 14 15 13 14 16 17 15 16 18 19 17
          18 20 21 19 2 3 23 22 3 5 24 23
          5 7 25 24 7 9 26 25 9 11 27 26
          11 13 28 27 13 15 29 28 15 17 30 29
          17 19 31 30 19 21 32 31 22 23 34 33
          23 24 35 34 24 25 36 35 25 26 37 36
          26 27 38 37 27 28 39 38 28 29 40 39
          29 30 41 40 30 31 42 41 31 32 43 42
          33 34 45 44 34 35 46 45 35 36 47 46
          36 37 48 47 37 38 49 48 38 39 50 49
          39 40 51 50 40 41 52 51 41 42 53 52
          42 43 54 53 44 45 56 55 45 46 57 56
          46 47 58 57 47 48 59 58 48 49 60 59
          49 50 61 60 50 51 62 61 51 52 63 62
          52 53 64 63 53 54 65 64 55 56 67 66
          56 57 68 67 57 58 69 68 58 59 70 69
          59 60 71 70 60 61 72 71 61 62 73 72
          62 63 74 73 63 64 75 74 64 65 76 75
          66 67 78 77 67 68 79 78 68 69 80 79
          69 70 81 80 70 71 82 81 71 72 83 82
          72 73 84 83 73 74 85 84 74 75 86 85
          75 76 87 86 77 78 89 88 78 79 90 89
          79 80 91 90 80 81 92 91 81 82 93 92
          82 83 94 93 83 84 95 94 84 85 96 95
          85 86 97 96 86 87 98 97 88 89 100 99
          89 90 101 100 90 91 102 101 91 92 103 102
          92 93 104 103 93 94 105 104 94 95 106 105
          95 96 107 106 96 97 108 107 97 98 109 108
          99 100 111 110 100 101 112 111 101 102 113 112
          102 103 114 113 103 104 115 114 104 105 116 115
          105 106 117 116 106 107 118 117 107 108 119 118
          108 109 120 119 110 111 122 121 111 112 123 122
          112 113 124 123 113 114 125 124 114 115 126 125
          115 116 127 126 116 117 128 127 117 118 129 128
          118 119 130 129 119 120 131 130 121 122 133 132
          122 123 134 133 123 124 135 134 124 125 136 135
          125 126 137 136 126 127 138 137 127 128 139 138
          128 129 140 139 129 130 141 140 130 131 142 141
          132 133 144 143 133 134 145 144 134 135 146 145
          135 136 147 146 136 137 148 147 137 138 149 148
          138 139 150 149 139 140 151 150 140 141 152 151
          141 142 153 152 143 144 155 154 144 145 156 155
          145 146 157 156 146 147 158 157 147 148 159 158
          148 149 160 159 149 150 161 160 150 151 162 161
          151 152 163 162 152 153 164 163 154 155 166 165
          155 156 167 166 156 157 168 167 157 158 169 168
          158 159 170 169 159 160 171 170 160 161 172 171
          161 162 173 172 162 163 174 173 163 164 175 174
          165 166 177 176 166 167 178 177 167 168 179 178
          168 169 180 179 169 170 181 180 170 171 182 181
          171 172 183 182 172 173 184 183 173 174 185 184
          174 175 186 185 176 177 188 187 177 178 189 188
          178 179 190 189 179 180 191 190 180 181 192 191
          181 182 193 192 182 183 194 193 183 184 195 194
          184 185 196 195 185 186 197 196 187 188 199 198
          188 189 200 199 189 190 201 200 190 191 202 201
          191 192 203 202 192 193 204 203 193 194 205 204
          194 195 206 205 195 196 207 206 196 197 208 207
          198 199 210 209 199 200 211 210 200 201 212 211
          201 202 213 212 202 203 214 213 203 204 215 214
          204 205 216 215 205 206 217 216 206 207 218 217
          207 208 219 218 209 210 221 220 210 211 222 221
          211 212 223 222 212 213 224 223 213 214 225 224
          214 215 226 225 215 216 227 226 216 217 228 227
          217 218 229 228 218 219 230 229 220 221 232 231
          221 222 233 232 222 223 234 233 223 224 235 234
          224 225 236 235 225 226 237 236 226 227 238 237
          227 228 239 238 228 229 240 239 229 230 241 240
          231 232 243 242 232 233 244 243 233 234 245 244
          234 235 246 245 235 236 247 246 236 237 248 247
          237 238 249 248 238 239 250 249 239 240 251 250
          240 241 252 251 242 243 254 253 243 244 255 254
          244 245 256 255 245 246 257 256 246 247 258 257
          247 248 259 258 248 249 260 259 249 250 261 260
          250 251 262 261 251 252 263 262 253 254 265 264
          254 255 266 265 255 256 267 266 256 257 268 267
          257 258 269 268 258 259 270 269 259 260 271 270
          260 261 272 271 261 262 273 272 262 263 274 273
          264 265 276 275 265 266 277 276 266 267 278 277
          267 268 279 278 268 269 280 279 269 270 281 280
          270 271 282 281 271 272 283 282 272 273 284 283
          273 274 285 284 275 276 287 286 276 277 288 287
          277 278 289 288 278 279 290 289 279 280 291 290
          280 281 292 291 281 282 293 292 282 283 294 293
          283 284 295 294 284 285 296 295 286 287 298 297
          287 288 299 298 288 289 300 299 289 290 301 300
          290 291 302 301 291 292 303 302 292 293 304 303
          293 294 305 304 294 295 306 305 295 296 307 306
          297 298 309 308 298 299 310 309 299 300 311 310
          300 301 312 311 301 302 313 312 302 303 314 313
          303 304 315 314 304 305 316 315 305 306 317 316
          306 307 318 317 308 309 320 319 309 310 321 320
          310 311 322 321 311 312 323 322 312 313 324 323
          313 314 325 324 314 315 326 325 315 316 327 326
          316 317 328 327 317 318 329 328 319 320 331 330
          320 321 332 331 321 322 333 332 322 323 334 333
          323 324 335 334 324 325 336 335 325 326 337 336
          326 327 338 337 327 328 339 338 328 329 340 339
          330 331 342 341 331 332 343 342 332 333 344 343
          333 334 345 344 334 335 346 345 335 336 347 346
          336 337 348 347 337 338 349 348 338 339 350 349
          339 340 351 350 341 342 353 352 342 343 354 353
          343 344 355 354 344 345 356 355 345 346 357 356
          346 347 358 357 347 348 359 358 348 349 360 359
          349 350 361 360 350 351 362 361 352 353 364 363
          353 354 365 364 354 355 366 365 355 356 367 366
          356 357 368 367 357 358 369 368 358 359 370 369
          359 360 371 370 360 361 372 371 361 362 373 372
          363 364 375 374 364 365 376 375 365 366 377 376
          366 367 378 377 367 368 379 378 368 369 380 379
          369 370 381 380 370 371 382 381 371 372 383 382
          372 373 384 383 374 375 386 385 375 376 387 386
          376 377 388 387 377 378 389 388 378 379 390 389
          379 380 391 390 380 381 392 391 381 382 393 392
          382 383 394 393 383 384 395 394 385 386 397 396
          386 387 398 397 387 388 399 398 388 389 400 399
          389 390 401 400 390 391 402 401 391 392 403 402
          392 393 404 403 393 394 405 404 394 395 406 405
          396 397 408 407 397 398 409 408 398 399 410 409
          399 400 411 410 400 401 412 411 401 402 413 412
          402 403 414 413 403 404 415 414 404 405 416 415
          405 406 417 416 407 408 419 418 408 409 420 419
          409 410 421 420 410 411 422 421 411 412 423 422
          412 413 424 423 413 414 425 424 414 415 426 425
          415 416 427 426 416 417 428 427 418 419 430 429
          419 420 431 430 420 421 432 431 421 422 433 432
          422 423 434 433 423 424 435 434 424 425 436 435
          425 426 437 436 426 427 438 437 427 428 439 438
          429 430 441 440 430 431 442 441 431 432 443 442
          432 433 444 443 433 434 445 444 434 435 446 445
          435 436 447 446 436 437 448 447 437 438 449 448
          438 439 450 449
        </DataArray>
        <DataArray type="Int32" Name="offsets" NumberOfComponents="1" format="ascii">
          4 8 12 16 20 24 28 32 36 40 44 48
          52 56 60 64 68 72 76 80 84 88 92 96
          100 104 108 112 116 120 124 128 132 136 140 144
          148 152 156 160 164 168 172 176 180 184 188 192
          196 200 204 208 212 216 220 224 228 232 236 240
          244 248 252 256 260 264 268 272 276 280 284 288
          292 296 300 304 308 312 316 320 324 328 332 336
          340 344 348 352 356 360 364 368 372 376 380 384
          388 392 396 400 404 408 412 416 420 424 428 432
          436 440 444 448 452 456 460 464 468 472 476 480
          484 488 492 496 500 504 508 512 516 520 524 528
          532 536 540 544 548 552 556 560 564 568 572 576
          580 584 588 592 596 600 604 608 612 616 620 624
          628 632 636 640 644 648 652 656 660 664 668 672
          676 680 684 688 692 696 700 704 708 712 716 720
          724 728 732 736 740 744 748 752 756 760 764 768
          772 776 780 784 788 792 796 800 804 808 812 816
          820 824 828 832 836 840 844 848 852 856 860 864
          868 872 876 880 884 888 892 896 900 904 908 912
          916 920 924 928 932 936 940 944 948 952 956 960
          964 968 972 976 980 984 988 992 996 1000 1004 1008
          1012 1016 1020 1024 1028 1032 1036 1040 1044 1048 1052 1056
          1060 1064 1068 1072 1076 1080 1084 1088 1092 1096 1100 1104
          1108 1112 1116 1120 1124 1128 1132 1136 1140 1144 1148 1152
          1156 1160 1164 1168 1172 1176 1180 1184 1188 1192 1196 1200
          1204 1208 1212 1216 1220 1224 1228 1232 1236 1240 1244 1248
          1252 1256 1260 1264 1268 1272 1276 1280 1284 1288 1292 1296
          1300 1304 1308 1312 1316 1320 1324 1328 1332 1336 1340 1344
          1348 1352 1356 1360 1364 1368 1372 1376 1380 1384 1388 1392
          1396 1400 1404 1408 1412 1416 1420 1424 1428 1432 1436 1440
          1444 1448 1452 1456 1460 1464 1468 1472 1476 1480 1484 1488
          1492 1496 1500 1504 1508 1512 1516 1520 1524 1528 1532 1536
          1540 1544 1548 1552 1556 1560 1564 1568 1572 1576 1580 1584
          1588 1592 1596 1600
        </DataArray>
        <DataArray type="UInt8" Name="types" NumberOfComponents="1" format="ascii">
          9 9 9 9 9 9 9 9 9 9 9 9
          9 9 9 9 9 9 9 9 9 9 9 9
          9 9 9 9 9 9 9 9 9 9 9 9
          9 9 9 9 9 9 9 9 9 9 9 9
          9 9 9 9 9 9 9 9 9 9 9 9
          9 9 9 9 9 9 9 9 9 9 9 9
          9 9 9 9 9 9 9 9 9 9 9 9
          9 9 9 9 9 9 9 9 9 9 9 9
          9 9 9 9 9 9 9 9 9 9 9 9
          9 9 9 9 9 9 9 9 9 9 9 9
          9 9 9 9 9 9 9 9 9 9 9 9
          9 9 9 9 9 9 9 9 9 9 9 9
          9 9 9 9 9 9 9 9 9 9 9 9
          9 9 9 9 9 9 9 9 9 9 9 9
          9 9 9 9 9 9 9 9 9 9 9 9
          9 9 9 9 9 9 9 9 9 9 9 9
          9 9 9 9 9 9 9 9 9 9 9 9
          9 9 9 9 9 9 9 9 9 9 9 9
          9 9 9 9 9 9 9 9 9 9 9 9
          9 9 9 9 9 9 9 9 9 9 9 9
          9 9 9 9 9 9 9 9 9 9 9 9
          9 9 9 9 9 9 9 9 9 9 9 9
          9 9 9 9 9 9 9 9 9 9 9 9
          9 9 9 9 9 9 9 9 9 9 9 9
          9 9 9 9 9 9 9 9 9 9 9 9
          9 9 9 9 9 9 9 9 9 9 9 9
          9 9 9 9 9 9 9 9 9 9 9 9
          9 9 9 9 9 9 9 9 9 9 9 9
          9 9 9 9 9 9 9 9 9 9 9 9
          9 9 9 9 9 9 9 9 9 9 9 9
          9 9 9 9 9 9 9 9 9 9 9 9
          9 9 9 9 9 9 9 9 9 9 9 9
          9 9 9 9 9 9 9 9 9 9 9 9
          9 9 9 9
        </DataArray>
      </Cells>
    </Piece>
  </UnstructuredGrid>
</VTKFile>
